192
# CELL(abcABC):   12.450  12.450   12.450    90.0000    90.0000    90.0000  Step:   0  Bead:   0 positions{angstrom}  cell{angstrom}
O 2.76727 9.18774 7.94496
O 7.30494 0.300083 4.69709
O 6.66487 10.2769 11.3978
O 6.67869 12.1345 9.42537
O 9.5747 1.36213 12.2198
O 4.16947 8.69806 5.74274
O 2.51562 5.41742 10.8595
O 10.8308 7.33396 0.490477
O 10.271 7.68386 10.0964
O 6.17075 4.78155 9.834
O 1.2484 1.64106 9.05777
O 8.32405 3.87043 11.1169
O 4.02264 6.30009 2.55954
O 0.366141 7.66848 3.1276
O 5.79947 5.01458 7.19839
O 11.2628 3.73127 10.5855
O 9.26366 8.57134 6.23689
O 10.5011 4.75852 4.6008
O 10.5148 9.3759 3.67948
O 7.85327 8.98806 2.04301
O 7.96772 8.01406 11.768
O 10.652 0.55659 6.76045
O 0.191357 8.37114 7.9645
O 0.353783 8.2539 10.8333
O 5.05943 2.99067 12.3219
O 1.96376 2.90006 11.4627
O 6.97139 7.8962 9.03042
O 8.55028 11.507 0.762882
O 3.73294 0.390677 4.86427
O 6.68578 10.9778 6.82609
O 2.56526 6.30809 5.98437
O 3.96734 7.80907 9.75896
O 1.2099 5.98162 0.753244
O 12.0095 6.85266 5.57637
O 10.5228 10.0851 8.07351
O 2.26028 2.68983 4.06512
O 11.3314 0.39345 9.87068
O 0.0474487 3.22538 6.08826
O 4.98234 12.3674 2.28605
O 9.01292 4.96757 1.05469
O 11.455 4.13762 1.90028
O 2.57453 8.21844 12.2974
O 6.63871 3.20756 3.99766
O 2.6382 1.87837 1.44935
O 8.89066 1.33762 9.01216
O 11.4223 5.51142 8.6363
O 9.96883 0.149044 3.89705
O 6.73343 7.71926 5.87656
O 7.92139 5.87228 4.17935
O 11.4771 1.29712 1.74853
O 4.04668 10.4026 12.3437
O 4.31808 4.58706 4.7824
O 0.632669 10.9977 10.6272
O 7.24141 1.89022 1.30122
O 5.76058 6.11751 0.214718
O 0.745679 11.5954 5.34327
O 5.03138 8.77514 3.2445
O 8.27677 3.81393 7.49868
O 2.07603 10.1359 2.88988
O 4.72655 1.58149 10.0927
O 1.03041 11.9699 1.04882
O 3.10636 11.4968 9.72576
O 4.11786 3.02194 7.55913
O 1.76016 4.82287 8.03988
H 2.96002 10.065 8.27902
H 3.16175 8.59929 8.65374
H 6.66774 12.3999 4.07857
H 8.2141 0.2409 4.29133
H 7.21666 9.53026 11.5801
H 5.79437 10.0954 11.6975
H 6.40677 11.4131 9.97216
H 6.69456 11.5913 8.5585
H 9.30313 0.384983 12.3277
H 10.2776 1.43681 0.470083
H 5.03734 8.47314 6.1139
H 3.72307 9.18941 6.39336
H 3.29172 5.95729 10.7076
H 2.07054 5.47066 9.9718
H 11.0492 7.85601 1.29045
H 10.3552 6.68012 0.988828
H 10.4284 8.40837 9.49556
H 10.4962 6.96355 9.53327
H 6.23531 5.02264 8.85569
H 5.50409 4.11581 9.82343
H 0.837444 1.98246 8.2428
H 0.519998 1.57327 9.69775
H 7.67797 4.24369 10.4909
H 8.31399 2.91359 10.9258
H 3.09428 6.11873 2.4232
H 4.09939 5.848 3.40769
H 0.144034 7.23621 3.96578
H 0.740842 7.00056 2.48687
H 5.10361 4.43687 6.88668
H 5.88246 5.6423 6.47568
H 10.383 3.61215 11.021
H 11.9881 3.39257 11.086
H 9.74221 8.89281 5.46654
H 9.43823 9.17437 6.94498
H 11.1677 5.34205 4.99149
H 10.8677 4.52364 3.7187
H 9.71287 9.34288 3.10893
H 11.1415 8.86658 3.13852
H 6.9546 8.83463 2.38461
H 7.89651 8.41757 1.2437
H 7.4958 7.26674 12.1751
H 8.80349 7.56487 11.4286
H 11.432 1.15938 6.82384
H 9.85864 0.981201 7.12349
H 1.16784 8.55472 7.83984
H 0.0992431 8.02965 8.82056
H 0.160468 9.25656 10.814
H 11.9856 7.78628 11.0788
H 4.3949 2.58357 0.46898
H 5.85783 2.59391 0.281212
H 2.07926 2.49093 10.5661
H 2.43335 3.73302 11.3112
H 7.58784 7.82485 9.79333
H 7.06334 7.2156 8.34716
H 8.52902 10.7355 1.44752
H 7.66237 11.3592 0.309977
H 3.56381 1.32352 4.85997
H 3.84366 0.148769 3.94777
H 6.86589 11.6908 6.25186
H 7.27094 10.2429 6.65114
H 3.15149 5.56594 5.7236
H 3.21798 7.08153 5.99409
H 4.91879 7.7421 9.63009
H 3.79984 8.22952 10.5811
H 1.70706 5.60136 12.4161
H 0.541103 6.53568 0.212376
H 0.324984 7.02123 6.15736
H 11.4363 7.54034 5.95899
H 11.4319 9.84137 7.98551
H 10.5267 11.0149 7.83222
H 1.56905 2.54006 4.67096
H 2.11981 2.59031 3.10271
H 10.833 0.539592 10.6395
H 10.672 0.343235 9.14251
H 0.0818777 4.01429 6.62953
H 11.7829 3.53558 5.46433
H 4.83447 0.722721 1.76164
H 4.7929 11.6991 1.69031
H 8.26017 5.1644 1.59339
H 8.66614 4.8219 0.163491
H 12.2051 4.74539 1.76804
H 10.6706 4.6026 1.56305
H 2.5811 7.45748 0.473477
H 1.74681 8.02768 11.7723
H 6.97329 3.03544 3.10061
H 7.09643 2.47146 4.4975
H 2.37402 2.36486 0.559728
H 2.29289 1.00864 1.36349
H 8.65564 2.15098 8.53184
H 8.12876 0.798406 9.22638
H 12.2654 5.82389 8.27006
H 11.6248 4.8793 9.30326
H 10.1784 0.164998 4.81279
H 10.2295 11.7215 3.59288
H 7.11348 7.0634 5.2557
H 7.53047 8.10772 6.18846
H 8.77635 5.80035 4.56187
H 7.61418 4.97768 4.24356
H 11.0059 1.00308 2.61272
H 11.7537 2.2292 1.83321
H 3.69114 10.8327 11.579
H 3.49932 9.63567 12.4105
H 3.65893 3.87303 4.53983
H 5.18543 4.31515 4.50008
H 0.681017 11.4491 11.4612
H 12.4048 11.4848 10.1349
H 8.05112 1.97464 0.785432
H 7.1852 0.964523 1.40106
H 5.05479 6.31546 0.911218
H 5.30166 5.43039 12.1411
H 1.67955 11.618 5.54691
H 0.78677 11.1836 4.53867
H 4.74695 8.71168 4.17722
H 4.63968 8.02701 2.76392
H 8.765 4.49593 7.9866
H 7.38683 4.20134 7.30295
H 1.72588 9.26568 2.84983
H 3.01684 10.127 2.96895
H 5.46919 0.931928 9.99722
H 4.70683 1.97344 11.0069
H 1.13866 11.2773 1.64943
H 0.363858 0.14431 1.34468
H 2.1796 11.5379 9.94633
H 3.38631 0.0118079 9.7181
H 3.8048 2.29155 6.99475
H 4.42918 2.6597 8.39017
H 2.46165 4.09706 8.0768
H 2.06819 5.52493 7.44074
